/*--------------------------------*- C++ -*----------------------------------*\
| =========                 |                                                 |
| \\      /  F ield         | OpenFOAM: The Open Source CFD Toolbox           |
|  \\    /   O peration     | Version:  v1812                                 |
|   \\  /    A nd           | Web:      www.OpenFOAM.com                      |
|    \\/     M anipulation  |                                                 |
\*---------------------------------------------------------------------------*/
FoamFile
{
    version     2.0;
    format      ascii;
    class       volScalarField;
    object      T;
}
// * * * * * * * * * * * * * * * * * * * * * * * * * * * * * * * * * * * * * //

dimensions      [0 0 0 1 0 0 0];

internalField   uniform 198;

boundaryField
{
    inlet
    {
        type            fixedValue;
        value           uniform 230;
    }

    outlet
    {
        type            inletOutlet;
	value		uniform 198;
	inletValue	uniform 198;
    }

    topWall
    {
        type            zeroGradient; //inletOutlet; //zeroGradient;
    }

    obstacle
    {
        type            zeroGradient;
    }

    bottom
    {
        type            symmetryPlane;
    }

    defaultFaces
    {
        type            empty;
    }
}

// ************************************************************************* //
